<?xml version="1.0"?>
<VTKFile type="UnstructuredGrid" version="0.1" byte_order="BigEndian">
<UnstructuredGrid GhostLevel="0">
<Piece NumberOfPoints="5423" NumberOfCells="4360" ><Points>
<DataArray type="Float32" NumberOfComponents="3" format="ascii">
0	100	0	0	90	0	10	100	0	10	90	0	0	100	-10	0	90	-10	10	100	-10	10	90	-10	20	100	0	20	90	0	20	100	-10	20	90	-10	30	100	0	30	90	0	30	100	-10	30	90	-10	40	100	0	40	90	0	40	100	-10	40	90	-10	50	100	0	50	90	0	50	100	-10	50	90	-10	60	100	0	60	90	0	60	100	-10	60	90	-10	70	100	0	70	90	0	70	100	-10	70	90	-10	80	100	0	80	90	0	80	100	-10	80	90	-10	90	100	0	90	90	0	90	100	-10	90	90	-10	100	100	0	100	90	0	100	100	-10	100	90	-10	0	80	0	10	80	0	0	80	-10	10	80	-10	20	80	0	20	80	-10	30	80	0	30	80	-10	40	80	0	40	80	-10	50	80	0	50	80	-10	60	80	0	60	80	-10	70	80	0	70	80	-10	80	80	0	80	80	-10	90	80	0	90	80	-10	100	80	0	100	80	-10	0	70	0	10	70	0	0	70	-10	10	70	-10	20	70	0	20	70	-10	30	70	0	30	70	-10	40	70	0	40	70	-10	50	70	0	50	70	-10	60	70	0	60	70	-10	70	70	0	70	70	-10	80	70	0	80	70	-10	90	70	0	90	70	-10	100	70	0	100	70	-10	0	60	0	10	60	0	0	60	-10	10	60	-10	20	60	0	20	60	-10	30	60	0	30	60	-10	70	60	0	80	60	0	70	60	-10	80	60	-10	90	60	0	90	60	-10	100	60	0	100	60	-10	0	50	0	10	50	0	0	50	-10	10	50	-10	20	50	0	20	50	-10	30	50	0	30	50	-10	70	50	0	80	50	0	70	50	-10	80	50	-10	90	50	0	90	50	-10	100	50	0	100	50	-10	0	40	0	10	40	0	0	40	-10	10	40	-10	20	40	0	20	40	-10	30	40	0	30	40	-10	70	40	0	80	40	0	70	40	-10	80	40	-10	90	40	0	90	40	-10	100	40	0	100	40	-10	0	30	0	10	30	0	0	30	-10	10	30	-10	20	30	0	20	30	-10	30	30	0	30	30	-10	70	30	0	80	30	0	70	30	-10	80	30	-10	90	30	0	90	30	-10	100	30	0	100	30	-10	0	20	0	10	20	0	0	20	-10	10	20	-10	20	20	0	20	20	-10	30	20	0	30	20	-10	40	30	0	40	20	0	40	30	-10	40	20	-10	50	30	0	50	20	0	50	30	-10	50	20	-10	60	30	0	60	20	0	60	30	-10	60	20	-10	70	20	0	70	20	-10	80	20	0	80	20	-10	90	20	0	90	20	-10	100	20	0	100	20	-10	0	10	0	10	10	0	0	10	-10	10	10	-10	20	10	0	20	10	-10	30	10	0	30	10	-10	40	10	0	40	10	-10	50	10	0	50	10	-10	60	10	0	60	10	-10	70	10	0	70	10	-10	80	10	0	80	10	-10	90	10	0	90	10	-10	100	10	0	100	10	-10	0	0	0	10	0	0	0	0	-10	10	0	-10	20	0	0	20	0	-10	30	0	0	30	0	-10	40	0	0	40	0	-10	50	0	0	50	0	-10	60	0	0	60	0	-10	70	0	0	70	0	-10	80	0	0	80	0	-10	90	0	0	90	0	-10	100	0	0	100	0	-10	0	100	-20	0	90	-20	10	100	-20	10	90	-20	20	100	-20	20	90	-20	30	100	-20	30	90	-20	40	100	-20	40	90	-20	50	100	-20	50	90	-20	60	100	-20	60	90	-20	70	100	-20	70	90	-20	80	100	-20	80	90	-20	90	100	-20	90	90	-20	100	100	-20	100	90	-20	0	80	-20	10	80	-20	20	80	-20	30	80	-20	40	80	-20	50	80	-20	60	80	-20	70	80	-20	80	80	-20	90	80	-20	100	80	-20	0	70	-20	10	70	-20	20	70	-20	30	70	-20	40	70	-20	50	70	-20	60	70	-20	70	70	-20	80	70	-20	90	70	-20	100	70	-20	0	60	-20	10	60	-20	20	60	-20	30	60	-20	70	60	-20	80	60	-20	90	60	-20	100	60	-20	0	50	-20	10	50	-20	20	50	-20	30	50	-20	70	50	-20	80	50	-20	90	50	-20	100	50	-20	0	40	-20	10	40	-20	20	40	-20	30	40	-20	70	40	-20	80	40	-20	90	40	-20	100	40	-20	0	30	-20	10	30	-20	20	30	-20	30	30	-20	70	30	-20	80	30	-20	90	30	-20	100	30	-20	0	20	-20	10	20	-20	20	20	-20	30	20	-20	40	30	-20	40	20	-20	50	30	-20	50	20	-20	60	30	-20	60	20	-20	70	20	-20	80	20	-20	90	20	-20	100	20	-20	0	10	-20	10	10	-20	20	10	-20	30	10	-20	40	10	-20	50	10	-20	60	10	-20	70	10	-20	80	10	-20	90	10	-20	100	10	-20	0	0	-20	10	0	-20	20	0	-20	30	0	-20	40	0	-20	50	0	-20	60	0	-20	70	0	-20	80	0	-20	90	0	-20	100	0	-20	0	100	-30	0	90	-30	10	100	-30	10	90	-30	20	100	-30	20	90	-30	30	100	-30	30	90	-30	40	100	-30	40	90	-30	50	100	-30	50	90	-30	60	100	-30	60	90	-30	70	100	-30	70	90	-30	80	100	-30	80	90	-30	90	100	-30	90	90	-30	100	100	-30	100	90	-30	0	80	-30	10	80	-30	20	80	-30	30	80	-30	40	80	-30	50	80	-30	60	80	-30	70	80	-30	80	80	-30	90	80	-30	100	80	-30	0	70	-30	10	70	-30	20	70	-30	30	70	-30	40	70	-30	50	70	-30	60	70	-30	70	70	-30	80	70	-30	90	70	-30	100	70	-30	0	60	-30	10	60	-30	20	60	-30	30	60	-30	70	60	-30	80	60	-30	90	60	-30	100	60	-30	0	50	-30	10	50	-30	20	50	-30	30	50	-30	70	50	-30	80	50	-30	90	50	-30	100	50	-30	0	40	-30	10	40	-30	20	40	-30	30	40	-30	70	40	-30	80	40	-30	90	40	-30	100	40	-30	0	30	-30	10	30	-30	20	30	-30	30	30	-30	70	30	-30	80	30	-30	90	30	-30	100	30	-30	0	20	-30	10	20	-30	20	20	-30	30	20	-30	40	30	-30	40	20	-30	50	30	-30	50	20	-30	60	30	-30	60	20	-30	70	20	-30	80	20	-30	90	20	-30	100	20	-30	0	10	-30	10	10	-30	20	10	-30	30	10	-30	40	10	-30	50	10	-30	60	10	-30	70	10	-30	80	10	-30	90	10	-30	100	10	-30	0	0	-30	10	0	-30	20	0	-30	30	0	-30	40	0	-30	50	0	-30	60	0	-30	70	0	-30	80	0	-30	90	0	-30	100	0	-30	0	100	-40	0	90	-40	10	100	-40	10	90	-40	20	100	-40	20	90	-40	30	100	-40	30	90	-40	40	100	-40	40	90	-40	50	100	-40	50	90	-40	60	100	-40	60	90	-40	70	100	-40	70	90	-40	80	100	-40	80	90	-40	90	100	-40	90	90	-40	100	100	-40	100	90	-40	0	80	-40	10	80	-40	20	80	-40	30	80	-40	40	80	-40	50	80	-40	60	80	-40	70	80	-40	80	80	-40	90	80	-40	100	80	-40	0	70	-40	10	70	-40	20	70	-40	30	70	-40	40	70	-40	50	70	-40	60	70	-40	70	70	-40	80	70	-40	90	70	-40	100	70	-40	0	60	-40	10	60	-40	20	60	-40	30	60	-40	70	60	-40	80	60	-40	90	60	-40	100	60	-40	0	50	-40	10	50	-40	20	50	-40	30	50	-40	70	50	-40	80	50	-40	90	50	-40	100	50	-40	0	40	-40	10	40	-40	20	40	-40	30	40	-40	70	40	-40	80	40	-40	90	40	-40	100	40	-40	0	30	-40	10	30	-40	20	30	-40	30	30	-40	70	30	-40	80	30	-40	90	30	-40	100	30	-40	0	20	-40	10	20	-40	20	20	-40	30	20	-40	40	30	-40	40	20	-40	50	30	-40	50	20	-40	60	30	-40	60	20	-40	70	20	-40	80	20	-40	90	20	-40	100	20	-40	0	10	-40	10	10	-40	20	10	-40	30	10	-40	40	10	-40	50	10	-40	60	10	-40	70	10	-40	80	10	-40	90	10	-40	100	10	-40	0	0	-40	10	0	-40	20	0	-40	30	0	-40	40	0	-40	50	0	-40	60	0	-40	70	0	-40	80	0	-40	90	0	-40	100	0	-40	0	100	-50	0	90	-50	10	100	-50	10	90	-50	20	100	-50	20	90	-50	30	100	-50	30	90	-50	40	100	-50	40	90	-50	50	100	-50	50	90	-50	60	100	-50	60	90	-50	70	100	-50	70	90	-50	80	100	-50	80	90	-50	90	100	-50	90	90	-50	100	100	-50	100	90	-50	0	80	-50	10	80	-50	20	80	-50	30	80	-50	40	80	-50	50	80	-50	60	80	-50	70	80	-50	80	80	-50	90	80	-50	100	80	-50	0	70	-50	10	70	-50	20	70	-50	30	70	-50	40	70	-50	50	70	-50	60	70	-50	70	70	-50	80	70	-50	90	70	-50	100	70	-50	0	60	-50	10	60	-50	20	60	-50	30	60	-50	70	60	-50	80	60	-50	90	60	-50	100	60	-50	0	50	-50	10	50	-50	20	50	-50	30	50	-50	70	50	-50	80	50	-50	90	50	-50	100	50	-50	0	40	-50	10	40	-50	20	40	-50	30	40	-50	70	40	-50	80	40	-50	90	40	-50	100	40	-50	0	30	-50	10	30	-50	20	30	-50	30	30	-50	70	30	-50	80	30	-50	90	30	-50	100	30	-50	0	20	-50	10	20	-50	20	20	-50	30	20	-50	40	30	-50	40	20	-50	50	30	-50	50	20	-50	60	30	-50	60	20	-50	70	20	-50	80	20	-50	90	20	-50	100	20	-50	0	10	-50	10	10	-50	20	10	-50	30	10	-50	40	10	-50	50	10	-50	60	10	-50	70	10	-50	80	10	-50	90	10	-50	100	10	-50	0	0	-50	10	0	-50	20	0	-50	30	0	-50	40	0	-50	50	0	-50	60	0	-50	70	0	-50	80	0	-50	90	0	-50	100	0	-50	0	100	-60	0	90	-60	10	100	-60	10	90	-60	20	100	-60	20	90	-60	30	100	-60	30	90	-60	40	100	-60	40	90	-60	50	100	-60	50	90	-60	60	100	-60	60	90	-60	70	100	-60	70	90	-60	80	100	-60	80	90	-60	90	100	-60	90	90	-60	100	100	-60	100	90	-60	0	80	-60	10	80	-60	20	80	-60	30	80	-60	40	80	-60	50	80	-60	60	80	-60	70	80	-60	80	80	-60	90	80	-60	100	80	-60	0	70	-60	10	70	-60	20	70	-60	30	70	-60	40	70	-60	50	70	-60	60	70	-60	70	70	-60	80	70	-60	90	70	-60	100	70	-60	0	60	-60	10	60	-60	20	60	-60	30	60	-60	70	60	-60	80	60	-60	90	60	-60	100	60	-60	0	50	-60	10	50	-60	20	50	-60	30	50	-60	70	50	-60	80	50	-60	90	50	-60	100	50	-60	0	40	-60	10	40	-60	20	40	-60	30	40	-60	70	40	-60	80	40	-60	90	40	-60	100	40	-60	0	30	-60	10	30	-60	20	30	-60	30	30	-60	70	30	-60	80	30	-60	90	30	-60	100	30	-60	0	20	-60	10	20	-60	20	20	-60	30	20	-60	40	30	-60	40	20	-60	50	30	-60	50	20	-60	60	30	-60	60	20	-60	70	20	-60	80	20	-60	90	20	-60	100	20	-60	0	10	-60	10	10	-60	20	10	-60	30	10	-60	40	10	-60	50	10	-60	60	10	-60	70	10	-60	80	10	-60	90	10	-60	100	10	-60	0	0	-60	10	0	-60	20	0	-60	30	0	-60	40	0	-60	50	0	-60	60	0	-60	70	0	-60	80	0	-60	90	0	-60	100	0	-60	0	100	-70	0	90	-70	10	100	-70	10	90	-70	20	100	-70	20	90	-70	30	100	-70	30	90	-70	40	100	-70	40	90	-70	50	100	-70	50	90	-70	60	100	-70	60	90	-70	70	100	-70	70	90	-70	80	100	-70	80	90	-70	90	100	-70	90	90	-70	100	100	-70	100	90	-70	0	80	-70	10	80	-70	20	80	-70	30	80	-70	40	80	-70	50	80	-70	60	80	-70	70	80	-70	80	80	-70	90	80	-70	100	80	-70	0	70	-70	10	70	-70	20	70	-70	30	70	-70	40	70	-70	50	70	-70	60	70	-70	70	70	-70	80	70	-70	90	70	-70	100	70	-70	0	60	-70	10	60	-70	20	60	-70	30	60	-70	70	60	-70	80	60	-70	90	60	-70	100	60	-70	0	50	-70	10	50	-70	20	50	-70	30	50	-70	70	50	-70	80	50	-70	90	50	-70	100	50	-70	0	40	-70	10	40	-70	20	40	-70	30	40	-70	70	40	-70	80	40	-70	90	40	-70	100	40	-70	0	30	-70	10	30	-70	20	30	-70	30	30	-70	70	30	-70	80	30	-70	90	30	-70	100	30	-70	0	20	-70	10	20	-70	20	20	-70	30	20	-70	40	30	-70	40	20	-70	50	30	-70	50	20	-70	60	30	-70	60	20	-70	70	20	-70	80	20	-70	90	20	-70	100	20	-70	0	10	-70	10	10	-70	20	10	-70	30	10	-70	40	10	-70	50	10	-70	60	10	-70	70	10	-70	80	10	-70	90	10	-70	100	10	-70	0	0	-70	10	0	-70	20	0	-70	30	0	-70	40	0	-70	50	0	-70	60	0	-70	70	0	-70	80	0	-70	90	0	-70	100	0	-70	0	100	-80	0	90	-80	10	100	-80	10	90	-80	20	100	-80	20	90	-80	30	100	-80	30	90	-80	40	100	-80	40	90	-80	50	100	-80	50	90	-80	60	100	-80	60	90	-80	70	100	-80	70	90	-80	80	100	-80	80	90	-80	90	100	-80	90	90	-80	100	100	-80	100	90	-80	0	80	-80	10	80	-80	20	80	-80	30	80	-80	40	80	-80	50	80	-80	60	80	-80	70	80	-80	80	80	-80	90	80	-80	100	80	-80	0	70	-80	10	70	-80	20	70	-80	30	70	-80	40	70	-80	50	70	-80	60	70	-80	70	70	-80	80	70	-80	90	70	-80	100	70	-80	0	60	-80	10	60	-80	20	60	-80	30	60	-80	70	60	-80	80	60	-80	90	60	-80	100	60	-80	0	50	-80	10	50	-80	20	50	-80	30	50	-80	70	50	-80	80	50	-80	90	50	-80	100	50	-80	0	40	-80	10	40	-80	20	40	-80	30	40	-80	70	40	-80	80	40	-80	90	40	-80	100	40	-80	0	30	-80	10	30	-80	20	30	-80	30	30	-80	70	30	-80	80	30	-80	90	30	-80	100	30	-80	0	20	-80	10	20	-80	20	20	-80	30	20	-80	40	30	-80	40	20	-80	50	30	-80	50	20	-80	60	30	-80	60	20	-80	70	20	-80	80	20	-80	90	20	-80	100	20	-80	0	10	-80	10	10	-80	20	10	-80	30	10	-80	40	10	-80	50	10	-80	60	10	-80	70	10	-80	80	10	-80	90	10	-80	10
[...]
<CellData Scalars="scalars">
<DataArray type="Int32" Name="nodeid" format="ascii">1	2	3	4	5	6	7	8	9	10	11	12	13	14	15	16	17	18	19	20	21	22	23	24	25	26	27	28	29	30	31	32	33	1001	1002	1004	1003	1005	1006	1013	1014	1016	1015	1009	1010	1012	1011	1017	1018	1025	1026	1028	1027	1021	1022	1024	1023	1029	1030	1032	1031	38	39	40	41	42	43	1033	1037	1038	1040	1039	1041	1042	1044	1043	1035	1053	1054	1056	1055	1057	1058	1060	1059	1065	1066	1068	1067	1061	1062	1064	1063	1073	1074	1076	1075	1077	1078	1080	1079	1085	1086	1088	1087	1081	1082	1084	1083	1113	1114	1116	1115	1117	1118	1120	1119	1125	1126	1128	1127	1121	1122	1124	1123	1093	1094	1096	1095	1097	1098	1100	1099	1105	1106	1108	1107	1101	1102	1104	1103	1137	1138	1140	1139	1141	1142	1144	1143	1149	1150	1152	1151	1145	1146	1148	1147	1157	1158	1160	1159	1161	1162	1164	1163	1169	1170	1172	1171	1165	1166	1168	1167	1197	1198	1200	1199	1201	1202	1204	1203	1209	1210	1212	1211	1205	1206	1208	1207	1177	1178	1180	1179	1181	1182	1184	1183	1189	1190	1192	1191	1185	1186	1188	1187	1217	1218	1220	1219	1214	1216	1221	1222	1224	1223	48	49	50	51	52	53	1225	1229	1230	1232	1231	1233	1234	1236	1235	1227	1245	1246	1248	1247	1249	1250	1252	1251	1257	1258	1260	1259	1253	1254	1256	1255	1265	1266	1268	1267	1269	1270	1272	1271	1277	1278	1280	1279	1273	1274	1276	1275	1305	1306	1308	1307	1309	1310	1312	1311	1317	1318	1320	1319	1313	1314	1316	1315	1285	1286	1288	1287	1289	1290	1292	1291	1297	1298	1300	1299	1293	1294	1296	1295	1329	1330	1332	1331	1333	1334	1336	1335	1341	1342	1344	1343	1337	1338	1340	1339	1349	1350	1352	1351	1353	1354	1356	1355	1361	1362	1364	1363	1357	1358	1360	1359	1389	1390	1392	1391	1393	1394	1396	1395	1401	1402	1404	1403	1397	1398	1400	1399	1369	1370	1372	1371	1373	1374	1376	1375	1381	1382	1384	1383	1377	1378	1380	1379	1409	1410	1412	1411	1406	1408	1413	1414	1416	1415	58	59	60	61	62	63	1417	1418	1420	1419	1425	1426	1428	1427	1429	1430	1432	1431	1424	1423	1437	1438	1440	1439	1441	1442	1444	1443	1436	1435	1445	1446	1448	1447	68	69	70	71	72	73	74	75	76	77	78	79	80	81	82	83	84	85	86	87	88	89	90	91	92	93	94	95	96	97	98	99	100	101	102	103	104	105	106	107	108	109	110	111	112	113	114	115	116	117	118	119	120	121	122	123	124	125	126	127	128	129	130	131	132	133	1449	1450	1452	1451	1453	1454	1461	1462	1464	1463	1457	1458	1460	1459	1465	1466	1473	1474	1476	1475	1469	1470	1472	1471	1477	1478	1480	1479	138	139	140	141	142	143	1481	1485	1486	1488	1487	1489	1490	1492	1491	1483	1501	1502	1504	1503	1505	1506	1508	1507	1513	1514	1516	1515	1509	1510	1512	1511	1521	1522	1524	1523	1525	1526	1528	1527	1533	1534	1536	1535	1529	1530	1532	1531	1561	1562	1564	1563	1565	1566	1568	1567	1573	1574	1576	1575	1569	1570	1572	1571	1541	1542	1544	1543	1545	1546	1548	1547	1553	1554	1556	1555	1549	1550	1552	1551	1585	1586	1588	1587	1589	1590	1592	1591	1597	1598	1600	1599	1593	1594	1596	1595	1605	1606	1608	1607	1609	1610	1612	1611	1617	1618	1620	1619	1613	1614	1616	1615	1645	1646	1648	1647	1649	1650	1652	1651	1657	1658	1660	1659	1653	1654	1656	1655	1625	1626	1628	1627	1629	1630	1632	1631	1637	1638	1640	1639	1633	1634	1636	1635	1665	1666	1668	1667	1662	1664	1669	1670	1672	1671	148	149	150	151	152	153	1673	1677	1678	1680	1679	1681	1682	1684	1683	1675	1693	1694	1696	1695	1697	1698	1700	1699	1705	1706	1708	1707	1701	1702	1704	1703	1713	1714	1716	1715	1717	1718	1720	1719	1725	1726	1728	1727	1721	1722	1724	1723	1753	1754	1756	1755	1757	1758	1760	1759	1765	1766	1768	1767	1761	1762	1764	1763	1733	1734	1736	1735	1737	1738	1740	1739	1745	1746	1748	1747	1741	1742	1744	1743	1777	1778	1780	1779	1781	1782	1784	1783	1789	1790	1792	1791	1785	1786	1788	1787	1797	1798	1800	1799	1801	1802	1804	1803	1809	1810	1812	1811	1805	1806	1808	1807	1837	1838	1840	1839	1841	1842	1844	1843	1849	1850	1852	1851	1845	1846	1848	1847	1817	1818	1820	1819	1821	1822	1824	1823	1829	1830	1832	1831	1825	1826	1828	1827	1857	1858	1860	1859	1854	1856	1861	1862	1864	1863	158	159	160	161	162	163	1865	1866	1868	1867	1873	1874	1876	1875	1877	1878	1880	1879	1872	1871	1885	1886	1888	1887	1889	1890	1892	1891	1884	1883	1893	1894	1896	1895	168	169	170	171	172	173	174	175	176	177	178	179	180	181	182	183	184	185	186	187	188	189	190	191	192	193	194	195	196	197	198	199	200	201	202	203	204	205	206	207	208	209	210	211	212	213	214	215	216	217	218	219	220	221	222	223	224	225	226	227	228	229	230	231	232	233	1897	1898	1900	1899	1901	1902	1909	1910	1912	1911	1905	1906	1908	1907	1913	1914	1921	1922	1924	1923	1917	1918	1920	1919	1925	1926	1928	1927	238	239	240	241	242	243	1929	1933	1934	1936	1935	1937	1938	1940	1939	1931	1949	1950	1952	1951	1953	1954	1956	1955	1961	1962	1964	1963	1957	1958	1960	1959	1969	1970	1972	1971	1973	1974	1976	1975	1981	1982	1984	1983	1977	1978	1980	1979	2009	2010	2012	2011	2013	2014	2016	2015	2021	2022	2024	2023	2017	2018	2020	2019	1989	1990	1992	1991	1993	1994	1996	1995	2001	2002	2004	2003	1997	1998	2000	1999	2033	2034	2036	2035	2037	2038	2040	2039	2045	2046	2048	2047	2041	2042	2044	2043	2053	2054	2056	2055	2057	2058	2060	2059	2065	2066	2068	2067	2061	2062	2064	2063	2093	2094	2096	2095	2097	2098	2100	2099	2105	2106	2108	2107	2101	2102	2104	2103	2073	2074	2076	2075	2077	2078	2080	2079	2085	2086	2088	2087	2081	2082	2084	2083	2113	2114	2116	2115	2110	2112	2117	2118	2120	2119	248	249	250	251	252	253	2121	2125	2126	2128	2127	2129	2130	2132	2131	2123	2141	2142	2144	2143	2145	2146	2148	2147	2153	2154	2156	2155	2149	2150	2152	2151	2161	2162	2164	2163	2165	2166	2168	2167	2173	2174	2176	2175	2169	2170	2172	2171	2201	2202	2204	2203	2205	2206	2208	2207	2213	2214	2216	2215	2209	2210	2212	2211	2181	2182	2184	2183	2185	2186	2188	2187	2193	2194	2196	2195	2189	2190	2192	2191	2225	2226	2228	2227	2229	2230	2232	2231	2237	2238	2240	2239	2233	2234	2236	2235	2245	2246	2248	2247	2249	2250	2252	2251	2257	2258	2260	2259	2253	2254	2256	2255	2285	2286	2288	2287	2289	2290	2292	2291	2297	2298	2300	2299	2293	2294	2296	2295	2265	2266	2268	2267	2269	2270	2272	2271	2277	2278	2280	2279	2273	2274	2276	2275	2305	2306	2308	2307	2302	2304	2309	2310	2312	2311	258	259	260	261	262	263	2313	2314	2316	2315	2321	2322	2324	2323	2325	2326	2328	2327	2320	2319	2333	2334	2336	2335	2337	2338	2340	2339	2332	2331	2341	2342	2344	2343	268	269	270	271	272	273	274	275	276	277	278	279	280	281	282	283	284	285	286	287	288	289	290	291	292	293	294	295	296	297	298	299	300	301	302	303	304	305	306	307	308	309	310	311	312	313	314	315	316	317	318	319	320	321	322	323	324	325	326	327	328	329	330	331	332	333	2345	2346	2348	2347	2349	2350	2357	2358	2360	2359	2353	2354	2356	2355	2361	2362	2369	2370	2372	2371	2365	2366	2368	2367	2373	2374	2376	2375	338	339	340	341	342	343	2377	2381	2382	2384	2383	2385	2386	2388	2387	2379	2397	2398	2400	2399	2401	2402	2404	2403	2409	2410	2412	2411	2405	2406	2408	2407	2417	2418	2420	2419	2421	2422	2424	2423	2429	2430	2432	2431	2425	2426	2428	2427	2457	2458	2460	2459	2461	2462	2464	2463	2469	2470	2472	2471	2465	2466	2468	2467	2437	2438	2440	2439	2441	2442	2444	2443	2449	2450	2452	2451	2445	2446	2448	2447	2481	2482	2484	2483	2485	2486	2488	2487	2493	2494	2496	2495	2489	2490	2492	2491	2501	2502	2504	2503	2505	2506	2508	2507	2513	2514	2516	2515	2509	2510	2512	2511	2541	2542	2544	2543	2545	2546	2548	2547	2553	2554	2556	2555	2549	2550	2552	2551	2521	2522	2524	2523	2525	2526	2528	2527	2533	2534	2536	2535	2529	2530	2532	2531	2561	2562	2564	2563	2558	2560	2565	2566	2568	2567	348	349	350	351	352	353	2569	2573	2574	2576	2575	2577	2578	2580	2579	2571	2589	2590	2592	2591	2593	2594	2596	2595	2601	2602	2604	2603	2597	2598	2600	2599	2609	2610	2612	2611	2613	2614	2616	2615	2621	2622	2624	2623	2617	2618	2620	2619	2649	2650	2652	2651	2653	2654	2656	2655	2661	2662	2664	2663	2657	2658	2660	2659	2629	2630	2632	2631	2633	2634	2636	2635	2641	2642	2644	2643	2637	2638	2640	2639	2673	2674	2676	2675	2677	2678	2680	2679	2685	2686	2688	2687	2681	2682	2684	2683	2693	2694	2696	2695	2697	2698	2700	2699	2705	2706	2708	2707	2701	2702	2704	2703	2733	2734	2736	2735	2737	2738	2740	2739	2745	2746	2748	2747	2741	2742	2744	2743	2713	2714	2716	2715	2717	2718	2720	2719	2725	2726	2728	2727	2721	2722	2724	2723	2753	2754	2756	2755	2750	2752	2757	2758	2760	2759	358	359	360	361	362	363	2761	2762	2764	2763	2769	2770	2772	2771	2773	2774	2776	2775	2768	2767	2781	2782	2784	2783	2785	2786	2788	2787	2780	2779	2789	2790	2792	2791	368	369	370	371	372	373	374	375	376	377	378	379	380	381	382	383	384	385	386	387	388	389	390	391	392	393	394	395	396	397	398	399	400	401	402	403	404	405	406	407	408	409	410	411	412	413	414	415	416	417	418	419	420	421	422	423	424	425	426	427	428	429	430	431	432	433	2793	2794	2796	2795	2797	2798	2805	2806	2808	2807	2801	2802	2804	2803	2809	2810	2817	2818	2820	2819	2813	2814	2816	2815	2821	2822	2824	2823	438	439	440	441	442	443	2825	2829	2830	2832	2831	2833	2834	2836	2835	2827	2845	2846	2848	2847	2849	2850	2852	2851	2857	2858	2860	2859	2853	2854	2856	2855	2865	2866	2868	2867	2869	2870	2872	2871	2877	2878	2880	2879	2873	2874	2876	2875	2905	2906	2908	2907	2909	2910	2912	2911	2917	2918	2920	2919	2913	2914	2916	2915	2885	2886	2888	2887	2889	2890	2892	2891	2897	2898	2900	2899	2893	2894	2896	2895	2929	2930	2932	2931	2933	2934	2936	2935	2941	2942	2944	2943	2937	2938	2940	2939	2949	2950	2952	2951	2953	2954	2956	2955	2961	2962	2964	2963	2957	2958	2960	2959	2989	2990	2992	2991	2993	2994	2996	2995	3001	3002	3004	3003	2997	2998	3000	2999	2969	2970	2972	2971	2973	2974	2976	2975	2981	2982	2984	2983	2977	2978	2980	2979	3009	3010	3012	3011	3006	3008	3013	3014	3016	3015	448	449	450	451	452	453	3017	3021	3022	3024	3023	3025	3026	3028	3027	3019	3037	3038	3040	3039	3041	3042	3044	3043	3049	3050	3052	3051	3045	3046	3048	3047	3057	3058	3060	3059	3061	3062	3064	3063	3069	3070	3072	3071	3065	3066	3068	3067	3097	3098	3100	3099	3101	3102	3104	3103	3109	3110	3112	3111	3105	3106	3108	3107	3077	3078	3080	3079	3081	3082	3084	3083	3089	3090	3092	3091	3085	3086	3088	3087	3121	3122	3124	3123	3125	3126	3128	3127	3133	3134	3136	3135	3129	3130	3132	3131	3141	3142	3144	3143	3145	3146	3148	3147	3153	3154	3156	3155	3149	3150	3152	3151	3181	3182	3184	3183	3185	3186	3188	3187	3193	3194	3196	3195	3189	3190	3192	3191	3161	3162	3164	3163	3165	3166	3168	3167	3173	3174	3176	3175	3169	3170	3172	3171	3201	3202	3204	3203	3198	3200	3205	3206	3208	3207	458	459	460	461	462	463	3209	3210	3212	3211	3217	3218	3220	3219	3221	3222	3224	3223	3216	3215	3229	3230	3232	3231	3233	3234	3236	3235	3228	3227	3237	3238	3240	3239	468	469	470	471	472	473	474	475	476	477	478	479	480	481	482	483	484	485	486	487	488	489	490	491	492	493	494	495	496	497	498	499	500	501	502	503	504	505	506	507	508	509	510	511	512	513	514	515	516	517	518	519	520	521	522	523	524	525	526	527	528	529	530	531	532	533	3241	3242	3244	3243	3245	3246	3253	3254	3256	3255	3249	3250	3252	3251	3257	3258	3265	3266	3268	3267	3261	3262	3264	3263	3269	3270	3272	3271	538	539	540	541	542	543	3273	3277	3278	3280	3279	3281	3282	3284	3283	3275	3293	3294	3296	3295	3297	3298	3300	3299	3305	3306	3308	3307	3301	3302	3304	3303	3313	3314	3316	3315	3317	3318	3320	3319	3325	3326	3328	3327	3321	3322	3324	3323	3353	3354	3356	3355	3357	3358	3360	3359	3365	3366	3368	3367	3361	3362	3364	3363	3333	3334	3336	3335	3337	3338	3340	3339	3345	3346	3348	3347	3341	3342	3344	3343	3377	3378	3380	3379	3381	3382	3384	3383	3389	3390	3392	3391	3385	3386	3388	3387	3397	3398	3400	3399	3401	3402	3404	3403	3409	3410	3412	3411	3405	3406	3408	3407	3437	3438	3440	3439	3441	3442	3444	3443	3449	3450	3452	3451	3445	3446	3448	3447	3417	3418	3420	3419	3421	3422	3424	3423	3429	3430	3432	3431	3425	3426	3428	3427	3457	3458	3460	3459	3454	3456	3461	3462	3464	3463	548	549	550	551	552	553	3465	3469	3470	3472	3471	3473	3474	3476	3475	3467	3485	3486	3488	3487	3489	3490	3492	3491	3497	3498	3500	3499	3493	3494	3496	3495	3505	3506	3508	3507	3509	3510	3512	3511	3517	3518	3520	3519	3513	3514	3516	3515	3545	3546	3548	3547	3549	3550	3552	3551	3557	3558	3560	3559	3553	3554	3556	3555	3525	3526	3528	3527	3529	3530	3532	3531	3537	3538	3540	3539	3533	3534	3536	3535	3569	3570	3572	3571	3573	3574	3576	3575	3581	3582	3584	3583	3577	3578	3580	3579	3589	3590	3592	3591	3593	3594	3596	3595	3601	3602	3604	3603	3597	3598	3600	3599	3629	3630	3632	3631	3633	3634	3636	3635	3641	3642	3644	3643	3637	3638	3640	3639	3609	3610	3612	3611	3613	3614	3616	3615	3621	3622	3624	3623	3617	3618	3620	3619	3649	3650	3652	3651	3646	3648	3653	3654	3656	3655	558	559	560	561	562	563	3657	3658	3660	3659	3665	3666	3668	3667	3669	3670	3672	3671	3664	3663	3677	3678	3680	3679	3681	3682	3684	3683	3676	3675	3685	3686	3688	3687	568	569	570	571	572	573	574	575	576	577	578	579	580	581	582	583	584	585	586	587	588	589	590	591	592	593	594	595	596	597	598	599	600	601	602	603	604	605	606	607	608	609	610	611	612	613	614	615	616	617	618	619	620	621	622	623	624	625	626	627	628	629	630	631	632	633	3689	3690	3692	3691	3693	3694	3701	3702	3704	3703	3697	3698	3700	3699	3705	3706	3713	3714	3716	3715	3709	3710	3712	3711	3717	3718	3720	3719	638	639	640	641	642	643	3721	3725	3726	3728	3727	3729	3730	3732	3731	3723	3741	3742	3744	3743	3745	3746	3748	3747	3753	3754	3756	3755	3749	3750	3752	3751	3761	3762	3764	3763	3765	3766	3768	3767	3773	3774	3776	3775	3769	3770	3772	3771	3801	3802	3804	3803	3805	3806	3808	3807	3813	3814	3816	3815	3809	3810	3812	3811	3781	3782	3784	3783	3785	3786	3788	3787	3793	3794	3796	3795	3789	3790	3792	3791	3825	3826	3828	3827	3829	3830	3832	3831	3837	3838	3840	3839	3833	3834	3836	3835	3845	3846	3848	3847	3849	3850	3852	3851	3857	3858	3860	3859	3853	3854	3856	3855	3885	3886	3888	3887	3889	3890	3892	3891	3897	3898	3900	3899	3893	3894	3896	3895	3865	3866	3868	3867	3869	3870	3872	3871	3877	3878	3880	3879	3873	3874	3876	3875	3905	3906	3908	3907	3902	3904	3909	3910	3912	3911	648	649	650	651	652	653	3913	3917	3918	3920	3919	3921	3922	3924	3923	3915	3933	3934	3936	3935	3937	3938	3940	3939	3945	3946	3948	3947	3941	3942	3944	3943	3953	3954	3956	3955	3957	3958	3960	3959	3965	3966	3968	3967	3961	3962	3964	3963	3993	3994	3996	3995	3997	3998	4000	3999	4005	4006	4008	4007	4001	4002	4004	4003	3973	3974	3976	3975	3977	3978	3980	3979	3985	3986	3988	3987	3981	3982	3984	3983	4017	4018	4020	4019	4021	4022	4024	4023	4029	4030	4032	4031	4025	4026	4028	4027	4037	4038	4040	4039	4041	4042	4044	4043	4049	4050	4052	4051	4045	4046	4048	4047	4077	4078	4080	4079	4081	4082	4084	4083	4089	4090	4092	4091	4085	4086	4088	4087	4057	4058	4060	4059	4061	4062	4064	4063	4069	4070	4072	4071	4065	4066	4068	4067	4097	4098	4100	4099	4094	4096	4101	4102	4104	4103	658	659	660	661	662	663	4105	4106	4108	4107	4113	4114	4116	4115	4117	4118	4120	4119	4112	4111	4125	4126	4128	4127	4129	4130	4132	4131	4124	4123	4133	4134	4136	4135	668	669	670	671	672	673	674	675	676	677	678	679	680	681	682	683	684	685	686	687	688	689	690	691	692	693	694	695	696	697	698	699	700	701	702	703	704	705	706	707	708	709	710	711	712	713	714	715	716	717	718	719	720	721	722	723	724	725	726	727	728	729	730	731	732	733	4137	4138	4140	4139	4141	4142	4149	4150	4152	4151	4145	4146	4148	4147	4153	4154	4161	4162	4164	4163	4157	4158	4160	4159	4165	4166	4168	4167	738	739	740	741	742	743	4169	4173	4174	4176	4175	4177	4178	4180	4179	4171	4189	4190	4192	4191	4193	4194	4196	4195	4201	4202	4204	4203	4197	4198	4200	4199	4209	4210	4212	4211	4213	4214	4216	4215	4221	4222	4224	4223	4217	4218	4220	4219	4249	4250	4252	4251	4253	4254	4256	4255	4261	4262	4264	4263	4257	4258	4260	4259	4229	4230	4232	4231	4233	4234	4236	4235	4241	4242	4244	4243	4237	4238	4240	4239	4273	4274	4276	4275	4277	4278	4280	4279	4285	4286	4288	4287	4281	4282	4284	4283	4293	4294	4296	4295	4297	4298	4300	4299	4305	4306	4308	4307	4301	4302	4304	4303	4333	4334	4336	4335	4337	4338	4340	4339	4345	4346	4348	4347	4341	4342	4344	4343	4313	4314	4316	4315	4317	4318	4320	4319	4325	4326	4328	4327	4321	4322	4324	4323	4353	4354	4356	4355	4350	4352	4357	4358	4360	4359	748	749	750	751	752	753	4361	4365	4366	4368	4367	4369	4370	4372	4371	4363	4381	4382	4384	4383	4385	4386	4388	4387	4393	4394	4396	4395	4389	4390	4392	4391	4401	4402	4404	4403	4405	4406	4408	4407	4413	4414	4416	4415	4409	4410	4412	4411	4441	4442	4444	4443	4445	4446	4448	4447	4453	4454	4456	4455	4449	4450	4452	4451	4421	4422	4424	4423	4425	4426	4428	4427	4433	4434	4436	4435	4429	4430	4432	4431	4465	4466	4468	4467	4469	4470	4472	4471	4477	4478	4480	4479	4473	4474	4476	4475	4485	4486	4488	4487	4489	4490	4492	4491	4497	4498	4500	4499	4493	4494	4496	4495	4525	4526	4528	4527	4529	4530	4532	4531	4537	4538	4540	4539	4533	4534	4536	4535	4505	4506	4508	4507	4509	4510	4512	4511	4517	4518	4520	4519	4513	4514	4516	4515	4545	4546	4548	4547	4542	4544	4549	4550	4552	4551	758	759	760	761	762	763	4553	4554	4556	4555	4561	4562	4564	4563	4565	4566	4568	4567	4560	4559	4573	4574	4576	4575	4577	4578	4580	4579	4572	4571	4581	4582	4584	4583	768	769	770	771	772	773	774	775	776	777	778	779	780	781	782	783	784	785	786	787	788	789	790	791	792	793	794	795	796	797	798	799	800	801	802	803	804	805	806	807	808	809	810	811	812	813	814	815	816	817	818	819	820	821	822	823	824	825	826	827	828	829	830	831	832	833	4585	4586	4588	4587	4589	4590	4597	4598	4600	4599	4593	4594	4596	4595	4601	4602	4609	4610	4612	4611	4605	4606	4608	4607	4613	4614	4616	4615	838	839	840	841	842	843	4617	4621	4622	4624	4623	4625	4626	4628	4627	4619	4637	4638	4640	4639	4641	4642	4644	4643	4649	4650	4652	4651	4645	4646	4648	4647	4657	4658	4660	4659	4661	4662	4664	4663	4669	4670	4672	4671	4665	4666	4668	4667	4697	4698	4700	4699	4701	4702	4704	4703	4709	4710	4712	4711	4705	4706	4708	4707	4677	4678	4680	4679	4681	4682	4684	4683	4689	4690	4692	4691	4685	4686	4688	4687	4721	4722	4724	4723	4725	4726	4728	4727	4733	4734	4736	4735	4729	4730	4732	4731	4741	4742	4744	4743	4745	4746	4748	4747	4753	4754	4756	4755	4749	4750	4752	4751	4781	4782	4784	4783	4785	4786	4788	4787	4793	4794	4796	4795	4789	4790	4792	4791	4761	4762	4764	4763	4765	4766	4768	4767	4773	4774	4776	4775	4769	4770	4772	4771	4801	4802	4804	4803	4798	4800	4805	4806	4808	4807	848	849	850	851	852	853	4809	4813	4814	4816	4815	4817	4818	4820	4819	4811	4829	4830	4832	4831	4833	4834	4836	4835	4841	4842	4844	4843	4837	4838	4840	4839	4849	4850	4852	4851	4853	4854	4856	4855	4861	4862	4864	4863	4857	4858	4860	4859	4889	4890	4892	4891	4893	4894	4896	4895	4901	4902	4904	4903	4897	4898	4900	4899	4869	4870	4872	4871	4873	4874	4876	4875	4881	4882	4884	4883	4877	4878	4880	4879	4913	4914	4916	4915	4917	4918	4920	4919	4925	4926	4928	4927	4921	4922	4924	4923	4933	4934	4936	4935	4937	4938	4940	4939	4945	4946	4948	4947	4941	4942	4944	4943	4973	4974	4976	4975	4977	4978	4980	4979	4985	4986	4988	4987	4981	4982	4984	4983	4953	4954	4956	4955	4957	4958	4960	4959	4965	4966	4968	4967	4961	4962	4964	4963	4993	4994	4996	4995	4990	4992	4997	4998	5000	4999	858	859	860	861	862	863	5001	5002	5004	5003	5009	5010	5012	5011	5013	5014	5016	5015	5008	5007	5021	5022	5024	5023	5025	5026	5028	5027	5020	5019	5029	5030	5032	5031	868	869	870	871	872	873	874	875	876	877	878	879	880	881	882	883	884	885	886	887	888	889	890	891	892	893	894	895	896	897	898	899	900	901	902	903	904	905	906	907	908	909	910	911	912	913	914	915	916	917	918	919	920	921	922	923	924	925	926	927	928	929	930	931	932	933	5033	5034	5036	5035	5037	5038	5045	5046	5048	5047	5041	5042	5044	5043	5049	5050	5057	5058	5060	5059	5053	5054	5056	5055	5061	5062	5064	5063	938	939	940	941	942	943	5065	5069	5070	5072	5071	5073	5074	5076	5075	5067	5085	5086	5088	5087	5089	5090	5092	5091	5097	5098	5100	5099	5093	5094	5096	5095	5105	5106	5108	5107	5109	5110	5112	5111	5117	5118	5120	5119	5113	5114	5116	5115	5145	5146	5148	5147	5149	5150	5152	5151	5157	5158	5160	5159	5153	5154	5156	5155	5125	5126	5128	5127	5129	5130	5132	5131	5137	5138	5140	5139	5133	5134	5136	5135	5169	5170	5172	5171	5173	5174	5176	5175	5181	5182	5184	5183	5177	5178	5180	5179	5189	5190	5192	5191	5193	5194	5196	5195	5201	5202	5204	5203	5197	5198	5200	5199	5229	5230	5232	5231	5233	5234	5236	5235	5241	5242	5244	5243	5237	5238	5240	5239	5209	5210	5212	5211	5213	5214	5216	5215	5221	5222	5224	5223	5217	5218	5220	5219	5249	5250	5252	5251	5246	5248	5253	5254	5256	5255	948	949	950	951	952	953	5257	5261	5262	5264	5263	5265	5266	5268	5267	5259	5277	5278	5280	5279	5281	5282	5284	5